<?xml version="1.0"?>
<VTKFile type="UnstructuredGrid" version="0.1" byte_order="LittleEndian">
<UnstructuredGrid>
<Piece NumberOfPoints="117" NumberOfCells="192"> 
<Points> 
<DataArray type="Float32" NumberOfComponents="3" Format="ascii">
0 0 0 
1 0 0 
2 0 0 
3 0 0 
4 0 0 
5 0 0 
6 0 0 
7 0 0 
8 0 0 
9 0 0 
10 0 0 
11 0 0 
12 0 0 
0 1 0 
1 1 0 
2 1 0 
3 1 0 
4 1 0 
5 1 0 
6 1 0 
7 1 0 
8 1 0 
9 1 0 
10 1 0 
11 1 0 
12 1 0 
0 2 0 
1 2 0 
2 2 0 
3 2 0 
4 2 0 
5 2 0 
6 2 0 
7 2 0 
8 2 0 
9 2 0 
10 2 0 
11 2 0 
12 2 0 
0 3 0 
1 3 0 
2 3 0 
3 3 0 
4 3 0 
5 3 0 
6 3 0 
7 3 0 
8 3 0 
9 3 0 
10 3 0 
11 3 0 
12 3 0 
0 4 0 
1 4 0 
2 4 0 
3 4 0 
4 4 0 
5 4 0 
6 4 0 
7 4 0 
8 4 0 
9 4 0 
10 4 0 
11 4 0 
12 4 0 
0 5 0 
1 5 0 
2 5 0 
3 5 0 
4 5 0 
5 5 0 
6 5 0 
7 5 0 
8 5 0 
9 5 0 
10 5 0 
11 5 0 
12 5 0 
0 6 0 
1 6 0 
2 6 0 
3 6 0 
4 6 0 
5 6 0 
6 6 0 
7 6 0 
8 6 0 
9 6 0 
10 6 0 
11 6 0 
12 6 0 
0 7 0 
1 7 0 
2 7 0 
3 7 0 
4 7 0 
5 7 0 
6 7 0 
7 7 0 
8 7 0 
9 7 0 
10 7 0 
11 7 0 
12 7 0 
0 8 0 
1 8 0 
2 8 0 
3 8 0 
4 8 0 
5 8 0 
6 8 0 
7 8 0 
8 8 0 
9 8 0 
10 8 0 
11 8 0 
12 8 0 
</DataArray>
</Points>
<Cells>
<DataArray type="Int32" Name="connectivity" Format="ascii">
0 1 13 
1 14 13 
1 2 14 
2 15 14 
2 3 15 
3 16 15 
3 4 16 
4 17 16 
4 5 17 
5 18 17 
5 6 18 
6 19 18 
6 7 19 
7 20 19 
7 8 20 
8 21 20 
8 9 21 
9 22 21 
9 10 22 
10 23 22 
10 11 23 
11 24 23 
11 12 24 
12 25 24 
13 14 26 
14 27 26 
14 15 27 
15 28 27 
15 16 28 
16 29 28 
16 17 29 
17 30 29 
17 18 30 
18 31 30 
18 19 31 
19 32 31 
19 20 32 
20 33 32 
20 21 33 
21 34 33 
21 22 34 
22 35 34 
22 23 35 
23 36 35 
23 24 36 
24 37 36 
24 25 37 
25 38 37 
26 27 39 
27 40 39 
27 28 40 
28 41 40 
28 29 41 
29 42 41 
29 30 42 
30 43 42 
30 31 43 
31 44 43 
31 32 44 
32 45 44 
32 33 45 
33 46 45 
33 34 46 
34 47 46 
34 35 47 
35 48 47 
35 36 48 
36 49 48 
36 37 49 
37 50 49 
37 38 50 
38 51 50 
39 40 52 
40 53 52 
40 41 53 
41 54 53 
41 42 54 
42 55 54 
42 43 55 
43 56 55 
43 44 56 
44 57 56 
44 45 57 
45 58 57 
45 46 58 
46 59 58 
46 47 59 
47 60 59 
47 48 60 
48 61 60 
48 49 61 
49 62 61 
49 50 62 
50 63 62 
50 51 63 
51 64 63 
52 53 65 
53 66 65 
53 54 66 
54 67 66 
54 55 67 
55 68 67 
55 56 68 
56 69 68 
56 57 69 
57 70 69 
57 58 70 
58 71 70 
58 59 71 
59 72 71 
59 60 72 
60 73 72 
60 61 73 
61 74 73 
61 62 74 
62 75 74 
62 63 75 
63 76 75 
63 64 76 
64 77 76 
65 66 78 
66 79 78 
66 67 79 
67 80 79 
67 68 80 
68 81 80 
68 69 81 
69 82 81 
69 70 82 
70 83 82 
70 71 83 
71 84 83 
71 72 84 
72 85 84 
72 73 85 
73 86 85 
73 74 86 
74 87 86 
74 75 87 
75 88 87 
75 76 88 
76 89 88 
76 77 89 
77 90 89 
78 79 91 
79 92 91 
79 80 92 
80 93 92 
80 81 93 
81 94 93 
81 82 94 
82 95 94 
82 83 95 
83 96 95 
83 84 96 
84 97 96 
84 85 97 
85 98 97 
85 86 98 
86 99 98 
86 87 99 
87 100 99 
87 88 100 
88 101 100 
88 89 101 
89 102 101 
89 90 102 
90 103 102 
91 92 104 
92 105 104 
92 93 105 
93 106 105 
93 94 106 
94 107 106 
94 95 107 
95 108 107 
95 96 108 
96 109 108 
96 97 109 
97 110 109 
97 98 110 
98 111 110 
98 99 111 
99 112 111 
99 100 112 
100 113 112 
100 101 113 
101 114 113 
101 102 114 
102 115 114 
102 103 115 
103 116 115 
</DataArray>
<DataArray type="Int32" Name="offsets" Format="ascii">
3 
6 
9 
12 
15 
18 
21 
24 
27 
30 
33 
36 
39 
42 
45 
48 
51 
54 
57 
60 
63 
66 
69 
72 
75 
78 
81 
84 
87 
90 
93 
96 
99 
102 
105 
108 
111 
114 
117 
120 
123 
126 
129 
132 
135 
138 
141 
144 
147 
150 
153 
156 
159 
162 
165 
168 
171 
174 
177 
180 
183 
186 
189 
192 
195 
198 
201 
204 
207 
210 
213 
216 
219 
222 
225 
228 
231 
234 
237 
240 
243 
246 
249 
252 
255 
258 
261 
264 
267 
270 
273 
276 
279 
282 
285 
288 
291 
294 
297 
300 
303 
306 
309 
312 
315 
318 
321 
324 
327 
330 
333 
336 
339 
342 
345 
348 
351 
354 
357 
360 
363 
366 
369 
372 
375 
378 
381 
384 
387 
390 
393 
396 
399 
402 
405 
408 
411 
414 
417 
420 
423 
426 
429 
432 
435 
438 
441 
444 
447 
450 
453 
456 
459 
462 
465 
468 
471 
474 
477 
480 
483 
486 
489 
492 
495 
498 
501 
504 
507 
510 
513 
516 
519 
522 
525 
528 
531 
534 
537 
540 
543 
546 
549 
552 
555 
558 
561 
564 
567 
570 
573 
576 
</DataArray>
<DataArray type="UInt8" Name="types" Format="ascii">
5 
5 
5 
5 
5 
5 
5 
5 
5 
5 
5 
5 
5 
5 
5 
5 
5 
5 
5 
5 
5 
5 
5 
5 
5 
5 
5 
5 
5 
5 
5 
5 
5 
5 
5 
5 
5 
5 
5 
5 
5 
5 
5 
5 
5 
5 
5 
5 
5 
5 
5 
5 
5 
5 
5 
5 
5 
5 
5 
5 
5 
5 
5 
5 
5 
5 
5 
5 
5 
5 
5 
5 
5 
5 
5 
5 
5 
5 
5 
5 
5 
5 
5 
5 
5 
5 
5 
5 
5 
5 
5 
5 
5 
5 
5 
5 
5 
5 
5 
5 
5 
5 
5 
5 
5 
5 
5 
5 
5 
5 
5 
5 
5 
5 
5 
5 
5 
5 
5 
5 
5 
5 
5 
5 
5 
5 
5 
5 
5 
5 
5 
5 
5 
5 
5 
5 
5 
5 
5 
5 
5 
5 
5 
5 
5 
5 
5 
5 
5 
5 
5 
5 
5 
5 
5 
5 
5 
5 
5 
5 
5 
5 
5 
5 
5 
5 
5 
5 
5 
5 
5 
5 
5 
5 
5 
5 
5 
5 
5 
5 
5 
5 
5 
5 
5 
5 
5 
5 
5 
5 
5 
5 
</DataArray>
</Cells>
<CellData Vectors="Vectors">
<DataArray type="Float64" Name="Velocity" NumberOfComponents = "3" Format="ascii">
-1.191952e-07 0 0 
-1.170888e-07 2.106436e-09 0 
-1.234081e-07 2.106436e-09 0 
-1.212782e-07 4.236373e-09 0 
-1.318809e-07 4.236373e-09 0 
-1.297187e-07 6.398501e-09 0 
-1.446779e-07 6.398501e-09 0 
-1.425076e-07 8.568744e-09 0 
-1.618153e-07 8.568744e-09 0 
-1.597174e-07 1.066672e-08 0 
-1.831488e-07 1.066672e-08 0 
-1.812889e-07 1.252660e-08 0 
-2.082020e-07 1.252660e-08 0 
-2.068601e-07 1.386844e-08 0 
-2.359389e-07 1.386844e-08 0 
-2.355187e-07 1.428859e-08 0 
-2.645160e-07 1.428859e-08 0 
-2.654982e-07 1.330639e-08 0 
-2.911288e-07 1.330639e-08 0 
-2.939171e-07 1.051810e-08 0 
-3.121650e-07 1.051810e-08 0 
-3.168041e-07 5.879037e-09 0 
-3.239231e-07 5.879037e-09 0 
-3.298021e-07 0 0 
-1.170888e-07 0 0 
-1.107930e-07 6.295808e-09 0 
-1.212782e-07 6.295808e-09 0 
-1.148971e-07 1.267693e-08 0 
-1.297187e-07 1.267693e-08 0 
-1.232083e-07 1.918739e-08 0 
-1.425076e-07 1.918739e-08 0 
-1.359165e-07 2.577850e-08 0 
-1.597174e-07 2.577850e-08 0 
-1.532576e-07 3.223826e-08 0 
-1.812889e-07 3.223826e-08 0 
-1.754293e-07 3.809783e-08 0 
-2.068601e-07 3.809783e-08 0 
-2.024310e-07 4.252702e-08 0 
-2.355187e-07 4.252702e-08 0 
-2.337776e-07 4.426812e-08 0 
-2.654982e-07 4.426812e-08 0 
-2.680411e-07 4.172527e-08 0 
-2.939171e-07 4.172527e-08 0 
-3.022373e-07 3.340506e-08 0 
-3.168041e-07 3.340506e-08 0 
-3.313321e-07 1.887709e-08 0 
-3.298021e-07 1.887709e-08 0 
-3.486792e-07 0 0 
-1.107930e-07 0 0 
-1.003931e-07 1.039987e-08 0 
-1.148971e-07 1.039987e-08 0 
-1.043088e-07 2.098814e-08 0 
-1.232083e-07 2.098814e-08 0 
-1.123008e-07 3.189562e-08 0 
-1.359165e-07 3.189562e-08 0 
-1.246925e-07 4.311960e-08 0 
-1.532576e-07 4.311960e-08 0 
-1.419672e-07 5.441000e-08 0 
-1.754293e-07 5.441000e-08 0 
-1.647399e-07 6.509945e-08 0 
-2.024310e-07 6.509945e-08 0 
-1.936567e-07 7.387367e-08 0 
-2.337776e-07 7.387367e-08 0 
-2.291197e-07 7.853161e-08 0 
-2.680411e-07 7.853161e-08 0 
-2.706512e-07 7.592151e-08 0 
-3.022373e-07 7.592151e-08 0 
-3.156590e-07 6.249980e-08 0 
-3.313321e-07 6.249980e-08 0 
-3.576076e-07 3.622424e-08 0 
-3.486792e-07 3.622424e-08 0 
-3.849035e-07 0 0 
-1.003931e-07 0 0 
-8.607759e-08 1.431553e-08 0 
-1.043088e-07 1.431553e-08 0 
-8.964417e-08 2.898014e-08 0 
-1.123008e-07 2.898014e-08 0 
-9.699356e-08 4.428736e-08 0 
-1.246925e-07 4.428736e-08 0 
-1.085856e-07 6.039428e-08 0 
-1.419672e-07 6.039428e-08 0 
-1.251788e-07 7.718268e-08 0 
-1.647399e-07 7.718268e-08 0 
-1.479063e-07 9.401630e-08 0 
-1.936567e-07 9.401630e-08 0 
-1.783364e-07 1.093366e-07 0 
-2.291197e-07 1.093366e-07 0 
-2.183931e-07 1.200631e-07 0 
-2.706512e-07 1.200631e-07 0 
-2.697850e-07 1.209293e-07 0 
-3.156590e-07 1.209293e-07 0 
-3.321400e-07 1.044484e-07 0 
-3.576076e-07 1.044484e-07 0 
-3.985360e-07 6.352007e-08 0 
-3.849035e-07 6.352007e-08 0 
-4.484235e-07 0 0 
-8.607759e-08 0 0 
-6.819547e-08 1.788212e-08 0 
-8.964417e-08 1.788212e-08 0 
-7.119676e-08 3.632953e-08 0 
-9.699356e-08 3.632953e-08 0 
-7.744368e-08 5.587940e-08 0 
-1.085856e-07 5.587940e-08 0 
-8.747753e-08 7.698748e-08 0 
-1.251788e-07 7.698748e-08 0 
-1.022561e-07 9.991015e-08 0 
-1.479063e-07 9.991015e-08 0 
-1.233700e-07 1.244465e-07 0 
-1.783364e-07 1.244465e-07 0 
-1.533896e-07 1.493933e-07 0 
-2.183931e-07 1.493933e-07 0 
-1.963314e-07 1.714550e-07 0 
-2.697850e-07 1.714550e-07 0 
-2.579557e-07 1.832843e-07 0 
-3.321400e-07 1.832843e-07 0 
-3.445799e-07 1.708444e-07 0 
-3.985360e-07 1.708444e-07 0 
-4.559727e-07 1.134076e-07 0 
-4.484235e-07 1.134076e-07 0 
-5.618312e-07 0 0 
-6.819547e-08 0 0 
-4.731207e-08 2.088340e-08 0 
-7.119676e-08 2.088340e-08 0 
-4.950370e-08 4.257646e-08 0 
-7.744368e-08 4.257646e-08 0 
-5.410690e-08 6.591325e-08 0 
-8.747753e-08 6.591325e-08 0 
-6.162469e-08 9.176608e-08 0 
-1.022561e-07 9.176608e-08 0 
-7.299822e-08 1.210240e-07 0 
-1.233700e-07 1.210240e-07 0 
-8.992786e-08 1.544661e-07 0 
-1.533896e-07 1.544661e-07 0 
-1.155207e-07 1.923350e-07 0 
-1.963314e-07 1.923350e-07 0 
-1.555870e-07 2.330794e-07 0 
-2.579557e-07 2.330794e-07 0 
-2.211266e-07 2.699085e-07 0 
-3.445799e-07 2.699085e-07 0 
-3.322512e-07 2.822372e-07 0 
-4.559727e-07 2.822372e-07 0 
-5.189437e-07 2.192661e-07 0 
-5.618312e-07 2.192661e-07 0 
-7.810973e-07 0 0 
-4.731207e-08 0 0 
-2.423705e-08 2.307503e-08 0 
-4.950370e-08 2.307503e-08 0 
-2.539907e-08 4.717966e-08 0 
-5.410690e-08 4.717966e-08 0 
-2.785552e-08 7.343104e-08 0 
-6.162469e-08 7.343104e-08 0 
-3.191611e-08 1.031396e-07 0 
-7.299822e-08 1.031396e-07 0 
-3.818422e-08 1.379536e-07 0 
-8.992786e-08 1.379536e-07 0 
-4.782256e-08 1.800589e-07 0 
-1.155207e-07 1.800589e-07 0 
-6.317817e-08 2.324014e-07 0 
-1.555870e-07 2.324014e-07 0 
-8.936946e-08 2.986190e-07 0 
-2.211266e-07 2.986190e-07 0 
-1.387126e-07 3.810330e-07 0 
-3.322512e-07 3.810330e-07 0 
-2.443544e-07 4.689298e-07 0 
-5.189437e-07 4.689298e-07 0 
-5.064538e-07 4.814197e-07 0 
-7.810973e-07 4.814197e-07 0 
-1.262517e-06 0 0 
-2.423705e-08 0 0 
0 2.423705e-08 0 
-2.539907e-08 2.423705e-08 0 
0 4.963611e-08 0 
-2.785552e-08 4.963611e-08 0 
0 7.749163e-08 0 
-3.191611e-08 7.749163e-08 0 
0 1.094077e-07 0 
-3.818422e-08 1.094077e-07 0 
0 1.475920e-07 0 
-4.782256e-08 1.475920e-07 0 
0 1.954145e-07 0 
-6.317817e-08 1.954145e-07 0 
0 2.585927e-07 0 
-8.936946e-08 2.585927e-07 0 
0 3.479621e-07 0 
-1.387126e-07 3.479621e-07 0 
0 4.866748e-07 0 
-2.443544e-07 4.866748e-07 0 
0 7.310292e-07 0 
-5.064538e-07 7.310292e-07 0 
0 1.237483e-06 0 
-1.262517e-06 1.237483e-06 0 
-2.500000e-06 0 0 
</DataArray>
</CellData>
<PointData Scalars="scalars">
<DataArray type="Float32" Name="hh" Format="ascii">
13 
1.288080e+01 
1.275740e+01 
1.262552e+01 
1.248084e+01 
1.231902e+01 
1.213587e+01 
1.192767e+01 
1.169173e+01 
1.142722e+01 
1.113609e+01 
1.082392e+01 
1.050000e+01 
13 
1.288291e+01 
1.276163e+01 
1.263191e+01 
1.248941e+01 
1.232969e+01 
1.214840e+01 
1.194154e+01 
1.170602e+01 
1.144052e+01 
1.114661e+01 
1.082980e+01 
1.050000e+01 
13 
1.288921e+01 
1.277431e+01 
1.265110e+01 
1.251519e+01 
1.236193e+01 
1.218650e+01 
1.198407e+01 
1.175029e+01 
1.148225e+01 
1.118001e+01 
1.084868e+01 
1.050000e+01 
13 
1.289961e+01 
1.279530e+01 
1.268300e+01 
1.255830e+01 
1.241634e+01 
1.225160e+01 
1.205794e+01 
1.182882e+01 
1.155817e+01 
1.124251e+01 
1.088490e+01 
1.050000e+01 
13 
1.291392e+01 
1.282428e+01 
1.272728e+01 
1.261870e+01 
1.249352e+01 
1.234561e+01 
1.216728e+01 
1.194888e+01 
1.167910e+01 
1.134696e+01 
1.094842e+01 
1.050000e+01 
13 
1.293180e+01 
1.286061e+01 
1.278316e+01 
1.269569e+01 
1.259343e+01 
1.247006e+01 
1.231667e+01 
1.212034e+01 
1.186238e+01 
1.151780e+01 
1.106183e+01 
1.050000e+01 
13 
1.295269e+01 
1.290318e+01 
1.284908e+01 
1.278745e+01 
1.271445e+01 
1.262453e+01 
1.250901e+01 
1.235342e+01 
1.213229e+01 
1.180004e+01 
1.128110e+01 
1.050000e+01 
13 
1.297576e+01 
1.295036e+01 
1.292251e+01 
1.289059e+01 
1.285241e+01 
1.280459e+01 
1.274141e+01 
1.265204e+01 
1.251333e+01 
1.226897e+01 
1.176252e+01 
1.050000e+01 
13 
13 
13 
13 
13 
13 
13 
13 
13 
13 
13 
13 
1.050000e+01 
</DataArray>
<DataArray type="Float32" Name="u" Format="ascii">
130 
1.288080e+02 
1.275740e+02 
1.262552e+02 
1.248084e+02 
1.231902e+02 
1.213587e+02 
1.192767e+02 
1.169173e+02 
1.142722e+02 
1.113609e+02 
1.082392e+02 
105 
120 
1.188291e+02 
1.176163e+02 
1.163191e+02 
1.148941e+02 
1.132969e+02 
1.114840e+02 
1.094154e+02 
1.070602e+02 
1.044052e+02 
1.014661e+02 
9.829802e+01 
95 
110 
1.088921e+02 
1.077431e+02 
1.065110e+02 
1.051519e+02 
1.036193e+02 
1.018650e+02 
9.984067e+01 
9.750290e+01 
9.482249e+01 
9.180011e+01 
8.848679e+01 
85 
100 
9.899607e+01 
9.795298e+01 
9.682997e+01 
9.558305e+01 
9.416338e+01 
9.251598e+01 
9.057941e+01 
8.828821e+01 
8.558170e+01 
8.242511e+01 
7.884903e+01 
75 
90 
8.913922e+01 
8.824278e+01 
8.727285e+01 
8.618699e+01 
8.493520e+01 
8.345614e+01 
8.167278e+01 
7.948884e+01 
7.679099e+01 
7.346959e+01 
6.948424e+01 
65 
80 
7.931805e+01 
7.860608e+01 
7.783164e+01 
7.695687e+01 
7.593430e+01 
7.470060e+01 
7.316671e+01 
7.120339e+01 
6.862384e+01 
6.517804e+01 
6.061831e+01 
55 
70 
6.952688e+01 
6.903184e+01 
6.849077e+01 
6.787453e+01 
6.714454e+01 
6.624527e+01 
6.509006e+01 
6.353419e+01 
6.132292e+01 
5.800041e+01 
5.281097e+01 
45 
60 
5.975763e+01 
5.950364e+01 
5.922508e+01 
5.890592e+01 
5.852408e+01 
5.804585e+01 
5.741407e+01 
5.652038e+01 
5.513325e+01 
5.268971e+01 
4.762517e+01 
35 
50 
50 
50 
50 
50 
50 
50 
50 
50 
50 
50 
50 
25 
</DataArray>
<DataArray type="Float32" Name="v" Format="ascii">
1.191952e-07 
1.171077e-07 
1.234261e-07 
1.213521e-07 
1.319489e-07 
1.298764e-07 
1.448193e-07 
1.427650e-07 
1.620421e-07 
1.600732e-07 
1.834591e-07 
1.817212e-07 
2.085785e-07 
2.073245e-07 
2.363461e-07 
2.359517e-07 
2.649017e-07 
2.658315e-07 
2.914328e-07 
2.941053e-07 
3.123422e-07 
3.168586e-07 
3.239764e-07 
3.298021e-07 
1.170888e-07 
1.109717e-07 
1.214415e-07 
1.155943e-07 
1.303367e-07 
1.246934e-07 
1.437935e-07 
1.383395e-07 
1.617843e-07 
1.566116e-07 
1.841330e-07 
1.795185e-07 
2.103392e-07 
2.068498e-07 
2.393274e-07 
2.379320e-07 
2.691635e-07 
2.712693e-07 
2.968641e-07 
3.040778e-07 
3.185604e-07 
3.318694e-07 
3.303419e-07 
3.486792e-07 
1.107930e-07 
1.009303e-07 
1.153668e-07 
1.063994e-07 
1.249831e-07 
1.167424e-07 
1.396088e-07 
1.319376e-07 
1.592080e-07 
1.520366e-07 
1.836734e-07 
1.771360e-07 
2.126411e-07 
2.072685e-07 
2.451720e-07 
2.422045e-07 
2.793085e-07 
2.810981e-07 
3.116271e-07 
3.217870e-07 
3.371753e-07 
3.594376e-07 
3.505558e-07 
3.849035e-07 
1.003931e-07 
8.725987e-08 
1.052865e-07 
9.421213e-08 
1.159798e-07 
1.066261e-07 
1.323238e-07 
1.242510e-07 
1.542795e-07 
1.470609e-07 
1.819242e-07 
1.752579e-07 
2.152719e-07 
2.091850e-07 
2.538707e-07 
2.492202e-07 
2.960865e-07 
2.956482e-07 
3.380304e-07 
3.481759e-07 
3.725489e-07 
4.035662e-07 
3.901096e-07 
4.484235e-07 
8.607759e-08 
7.050101e-08 
9.141032e-08 
7.993005e-08 
1.035741e-07 
9.549886e-08 
1.221202e-07 
1.165306e-07 
1.469585e-07 
1.429628e-07 
1.784889e-07 
1.752343e-07 
2.174645e-07 
2.141185e-07 
2.646014e-07 
2.606585e-07 
3.196573e-07 
3.164400e-07 
3.793548e-07 
3.846077e-07 
4.336112e-07 
4.698642e-07 
4.625418e-07 
5.618312e-07 
6.819547e-08 
5.171604e-08 
7.419632e-08 
6.529449e-08 
8.837578e-08 
8.527668e-08 
1.095302e-07 
1.105379e-07 
1.373948e-07 
1.413349e-07 
1.728206e-07 
1.787367e-07 
2.176882e-07 
2.243609e-07 
2.748432e-07 
2.802380e-07 
3.476595e-07 
3.489234e-07 
4.377052e-07 
4.359457e-07 
5.362545e-07 
5.633651e-07 
6.031019e-07 
7.810973e-07 
4.731207e-08 
3.346478e-08 
5.461751e-08 
5.358202e-08 
7.178772e-08 
7.853692e-08 
9.586303e-08 
1.079649e-07 
1.263587e-07 
1.431406e-07 
1.646761e-07 
1.863014e-07 
2.139304e-07 
2.408358e-07 
2.796743e-07 
3.117053e-07 
3.715781e-07 
4.054964e-07 
5.055462e-07 
5.287761e-07 
6.994267e-07 
6.987563e-07 
9.175391e-07 
1.262517e-06 
2.423705e-08 
2.423705e-08 
3.510765e-08 
4.963611e-08 
5.691813e-08 
7.749163e-08 
8.380686e-08 
1.094077e-07 
1.158796e-07 
1.475920e-07 
1.551463e-07 
1.954145e-07 
2.053736e-07 
2.585927e-07 
2.736002e-07 
3.479621e-07 
3.745916e-07 
4.866748e-07 
5.445745e-07 
7.310292e-07 
8.893251e-07 
1.237483e-06 
1.767856e-06 
2.500000e-06 
</DataArray>
</PointData>
</Piece>
</UnstructuredGrid>
</VTKFile>
