<?xml version="1.0"?>
<VTKFile type="UnstructuredGrid" version="0.1" byte_order="LittleEndian">
<UnstructuredGrid>
<Piece NumberOfPoints="425" NumberOfCells="768"> 
<Points> 
<DataArray type="Float32" NumberOfComponents="3" Format="ascii">
0 0 0 
5.000000e-01 0 0 
1 0 0 
1.500000e+00 0 0 
2 0 0 
2.500000e+00 0 0 
3 0 0 
3.500000e+00 0 0 
4 0 0 
4.500000e+00 0 0 
5 0 0 
5.500000e+00 0 0 
6 0 0 
6.500000e+00 0 0 
7 0 0 
7.500000e+00 0 0 
8 0 0 
8.500000e+00 0 0 
9 0 0 
9.500000e+00 0 0 
10 0 0 
1.050000e+01 0 0 
11 0 0 
1.150000e+01 0 0 
12 0 0 
0 5.000000e-01 0 
5.000000e-01 5.000000e-01 0 
1 5.000000e-01 0 
1.500000e+00 5.000000e-01 0 
2 5.000000e-01 0 
2.500000e+00 5.000000e-01 0 
3 5.000000e-01 0 
3.500000e+00 5.000000e-01 0 
4 5.000000e-01 0 
4.500000e+00 5.000000e-01 0 
5 5.000000e-01 0 
5.500000e+00 5.000000e-01 0 
6 5.000000e-01 0 
6.500000e+00 5.000000e-01 0 
7 5.000000e-01 0 
7.500000e+00 5.000000e-01 0 
8 5.000000e-01 0 
8.500000e+00 5.000000e-01 0 
9 5.000000e-01 0 
9.500000e+00 5.000000e-01 0 
10 5.000000e-01 0 
1.050000e+01 5.000000e-01 0 
11 5.000000e-01 0 
1.150000e+01 5.000000e-01 0 
12 5.000000e-01 0 
0 1 0 
5.000000e-01 1 0 
1 1 0 
1.500000e+00 1 0 
2 1 0 
2.500000e+00 1 0 
3 1 0 
3.500000e+00 1 0 
4 1 0 
4.500000e+00 1 0 
5 1 0 
5.500000e+00 1 0 
6 1 0 
6.500000e+00 1 0 
7 1 0 
7.500000e+00 1 0 
8 1 0 
8.500000e+00 1 0 
9 1 0 
9.500000e+00 1 0 
10 1 0 
1.050000e+01 1 0 
11 1 0 
1.150000e+01 1 0 
12 1 0 
0 1.500000e+00 0 
5.000000e-01 1.500000e+00 0 
1 1.500000e+00 0 
1.500000e+00 1.500000e+00 0 
2 1.500000e+00 0 
2.500000e+00 1.500000e+00 0 
3 1.500000e+00 0 
3.500000e+00 1.500000e+00 0 
4 1.500000e+00 0 
4.500000e+00 1.500000e+00 0 
5 1.500000e+00 0 
5.500000e+00 1.500000e+00 0 
6 1.500000e+00 0 
6.500000e+00 1.500000e+00 0 
7 1.500000e+00 0 
7.500000e+00 1.500000e+00 0 
8 1.500000e+00 0 
8.500000e+00 1.500000e+00 0 
9 1.500000e+00 0 
9.500000e+00 1.500000e+00 0 
10 1.500000e+00 0 
1.050000e+01 1.500000e+00 0 
11 1.500000e+00 0 
1.150000e+01 1.500000e+00 0 
12 1.500000e+00 0 
0 2 0 
5.000000e-01 2 0 
1 2 0 
1.500000e+00 2 0 
2 2 0 
2.500000e+00 2 0 
3 2 0 
3.500000e+00 2 0 
4 2 0 
4.500000e+00 2 0 
5 2 0 
5.500000e+00 2 0 
6 2 0 
6.500000e+00 2 0 
7 2 0 
7.500000e+00 2 0 
8 2 0 
8.500000e+00 2 0 
9 2 0 
9.500000e+00 2 0 
10 2 0 
1.050000e+01 2 0 
11 2 0 
1.150000e+01 2 0 
12 2 0 
0 2.500000e+00 0 
5.000000e-01 2.500000e+00 0 
1 2.500000e+00 0 
1.500000e+00 2.500000e+00 0 
2 2.500000e+00 0 
2.500000e+00 2.500000e+00 0 
3 2.500000e+00 0 
3.500000e+00 2.500000e+00 0 
4 2.500000e+00 0 
4.500000e+00 2.500000e+00 0 
5 2.500000e+00 0 
5.500000e+00 2.500000e+00 0 
6 2.500000e+00 0 
6.500000e+00 2.500000e+00 0 
7 2.500000e+00 0 
7.500000e+00 2.500000e+00 0 
8 2.500000e+00 0 
8.500000e+00 2.500000e+00 0 
9 2.500000e+00 0 
9.500000e+00 2.500000e+00 0 
10 2.500000e+00 0 
1.050000e+01 2.500000e+00 0 
11 2.500000e+00 0 
1.150000e+01 2.500000e+00 0 
12 2.500000e+00 0 
0 3 0 
5.000000e-01 3 0 
1 3 0 
1.500000e+00 3 0 
2 3 0 
2.500000e+00 3 0 
3 3 0 
3.500000e+00 3 0 
4 3 0 
4.500000e+00 3 0 
5 3 0 
5.500000e+00 3 0 
6 3 0 
6.500000e+00 3 0 
7 3 0 
7.500000e+00 3 0 
8 3 0 
8.500000e+00 3 0 
9 3 0 
9.500000e+00 3 0 
10 3 0 
1.050000e+01 3 0 
11 3 0 
1.150000e+01 3 0 
12 3 0 
0 3.500000e+00 0 
5.000000e-01 3.500000e+00 0 
1 3.500000e+00 0 
1.500000e+00 3.500000e+00 0 
2 3.500000e+00 0 
2.500000e+00 3.500000e+00 0 
3 3.500000e+00 0 
3.500000e+00 3.500000e+00 0 
4 3.500000e+00 0 
4.500000e+00 3.500000e+00 0 
5 3.500000e+00 0 
5.500000e+00 3.500000e+00 0 
6 3.500000e+00 0 
6.500000e+00 3.500000e+00 0 
7 3.500000e+00 0 
7.500000e+00 3.500000e+00 0 
8 3.500000e+00 0 
8.500000e+00 3.500000e+00 0 
9 3.500000e+00 0 
9.500000e+00 3.500000e+00 0 
10 3.500000e+00 0 
1.050000e+01 3.500000e+00 0 
11 3.500000e+00 0 
1.150000e+01 3.500000e+00 0 
12 3.500000e+00 0 
0 4 0 
5.000000e-01 4 0 
1 4 0 
1.500000e+00 4 0 
2 4 0 
2.500000e+00 4 0 
3 4 0 
3.500000e+00 4 0 
4 4 0 
4.500000e+00 4 0 
5 4 0 
5.500000e+00 4 0 
6 4 0 
6.500000e+00 4 0 
7 4 0 
7.500000e+00 4 0 
8 4 0 
8.500000e+00 4 0 
9 4 0 
9.500000e+00 4 0 
10 4 0 
1.050000e+01 4 0 
11 4 0 
1.150000e+01 4 0 
12 4 0 
0 4.500000e+00 0 
5.000000e-01 4.500000e+00 0 
1 4.500000e+00 0 
1.500000e+00 4.500000e+00 0 
2 4.500000e+00 0 
2.500000e+00 4.500000e+00 0 
3 4.500000e+00 0 
3.500000e+00 4.500000e+00 0 
4 4.500000e+00 0 
4.500000e+00 4.500000e+00 0 
5 4.500000e+00 0 
5.500000e+00 4.500000e+00 0 
6 4.500000e+00 0 
6.500000e+00 4.500000e+00 0 
7 4.500000e+00 0 
7.500000e+00 4.500000e+00 0 
8 4.500000e+00 0 
8.500000e+00 4.500000e+00 0 
9 4.500000e+00 0 
9.500000e+00 4.500000e+00 0 
10 4.500000e+00 0 
1.050000e+01 4.500000e+00 0 
11 4.500000e+00 0 
1.150000e+01 4.500000e+00 0 
12 4.500000e+00 0 
0 5 0 
5.000000e-01 5 0 
1 5 0 
1.500000e+00 5 0 
2 5 0 
2.500000e+00 5 0 
3 5 0 
3.500000e+00 5 0 
4 5 0 
4.500000e+00 5 0 
5 5 0 
5.500000e+00 5 0 
6 5 0 
6.500000e+00 5 0 
7 5 0 
7.500000e+00 5 0 
8 5 0 
8.500000e+00 5 0 
9 5 0 
9.500000e+00 5 0 
10 5 0 
1.050000e+01 5 0 
11 5 0 
1.150000e+01 5 0 
12 5 0 
0 5.500000e+00 0 
5.000000e-01 5.500000e+00 0 
1 5.500000e+00 0 
1.500000e+00 5.500000e+00 0 
2 5.500000e+00 0 
2.500000e+00 5.500000e+00 0 
3 5.500000e+00 0 
3.500000e+00 5.500000e+00 0 
4 5.500000e+00 0 
4.500000e+00 5.500000e+00 0 
5 5.500000e+00 0 
5.500000e+00 5.500000e+00 0 
6 5.500000e+00 0 
6.500000e+00 5.500000e+00 0 
7 5.500000e+00 0 
7.500000e+00 5.500000e+00 0 
8 5.500000e+00 0 
8.500000e+00 5.500000e+00 0 
9 5.500000e+00 0 
9.500000e+00 5.500000e+00 0 
10 5.500000e+00 0 
1.050000e+01 5.500000e+00 0 
11 5.500000e+00 0 
1.150000e+01 5.500000e+00 0 
12 5.500000e+00 0 
0 6 0 
5.000000e-01 6 0 
1 6 0 
1.500000e+00 6 0 
2 6 0 
2.500000e+00 6 0 
3 6 0 
3.500000e+00 6 0 
4 6 0 
4.500000e+00 6 0 
5 6 0 
5.500000e+00 6 0 
6 6 0 
6.500000e+00 6 0 
7 6 0 
7.500000e+00 6 0 
8 6 0 
8.500000e+00 6 0 
9 6 0 
9.500000e+00 6 0 
10 6 0 
1.050000e+01 6 0 
11 6 0 
1.150000e+01 6 0 
12 6 0 
0 6.500000e+00 0 
5.000000e-01 6.500000e+00 0 
1 6.500000e+00 0 
1.500000e+00 6.500000e+00 0 
2 6.500000e+00 0 
2.500000e+00 6.500000e+00 0 
3 6.500000e+00 0 
3.500000e+00 6.500000e+00 0 
4 6.500000e+00 0 
4.500000e+00 6.500000e+00 0 
5 6.500000e+00 0 
5.500000e+00 6.500000e+00 0 
6 6.500000e+00 0 
6.500000e+00 6.500000e+00 0 
7 6.500000e+00 0 
7.500000e+00 6.500000e+00 0 
8 6.500000e+00 0 
8.500000e+00 6.500000e+00 0 
9 6.500000e+00 0 
9.500000e+00 6.500000e+00 0 
10 6.500000e+00 0 
1.050000e+01 6.500000e+00 0 
11 6.500000e+00 0 
1.150000e+01 6.500000e+00 0 
12 6.500000e+00 0 
0 7 0 
5.000000e-01 7 0 
1 7 0 
1.500000e+00 7 0 
2 7 0 
2.500000e+00 7 0 
3 7 0 
3.500000e+00 7 0 
4 7 0 
4.500000e+00 7 0 
5 7 0 
5.500000e+00 7 0 
6 7 0 
6.500000e+00 7 0 
7 7 0 
7.500000e+00 7 0 
8 7 0 
8.500000e+00 7 0 
9 7 0 
9.500000e+00 7 0 
10 7 0 
1.050000e+01 7 0 
11 7 0 
1.150000e+01 7 0 
12 7 0 
0 7.500000e+00 0 
5.000000e-01 7.500000e+00 0 
1 7.500000e+00 0 
1.500000e+00 7.500000e+00 0 
2 7.500000e+00 0 
2.500000e+00 7.500000e+00 0 
3 7.500000e+00 0 
3.500000e+00 7.500000e+00 0 
4 7.500000e+00 0 
4.500000e+00 7.500000e+00 0 
5 7.500000e+00 0 
5.500000e+00 7.500000e+00 0 
6 7.500000e+00 0 
6.500000e+00 7.500000e+00 0 
7 7.500000e+00 0 
7.500000e+00 7.500000e+00 0 
8 7.500000e+00 0 
8.500000e+00 7.500000e+00 0 
9 7.500000e+00 0 
9.500000e+00 7.500000e+00 0 
10 7.500000e+00 0 
1.050000e+01 7.500000e+00 0 
11 7.500000e+00 0 
1.150000e+01 7.500000e+00 0 
12 7.500000e+00 0 
0 8 0 
5.000000e-01 8 0 
1 8 0 
1.500000e+00 8 0 
2 8 0 
2.500000e+00 8 0 
3 8 0 
3.500000e+00 8 0 
4 8 0 
4.500000e+00 8 0 
5 8 0 
5.500000e+00 8 0 
6 8 0 
6.500000e+00 8 0 
7 8 0 
7.500000e+00 8 0 
8 8 0 
8.500000e+00 8 0 
9 8 0 
9.500000e+00 8 0 
10 8 0 
1.050000e+01 8 0 
11 8 0 
1.150000e+01 8 0 
12 8 0 
</DataArray>
</Points>
<Cells>
<DataArray type="Int32" Name="connectivity" Format="ascii">
0 1 25 
1 26 25 
1 2 26 
2 27 26 
2 3 27 
3 28 27 
3 4 28 
4 29 28 
4 5 29 
5 30 29 
5 6 30 
6 31 30 
6 7 31 
7 32 31 
7 8 32 
8 33 32 
8 9 33 
9 34 33 
9 10 34 
10 35 34 
10 11 35 
11 36 35 
11 12 36 
12 37 36 
12 13 37 
13 38 37 
13 14 38 
14 39 38 
14 15 39 
15 40 39 
15 16 40 
16 41 40 
16 17 41 
17 42 41 
17 18 42 
18 43 42 
18 19 43 
19 44 43 
19 20 44 
20 45 44 
20 21 45 
21 46 45 
21 22 46 
22 47 46 
22 23 47 
23 48 47 
23 24 48 
24 49 48 
25 26 50 
26 51 50 
26 27 51 
27 52 51 
27 28 52 
28 53 52 
28 29 53 
29 54 53 
29 30 54 
30 55 54 
30 31 55 
31 56 55 
31 32 56 
32 57 56 
32 33 57 
33 58 57 
33 34 58 
34 59 58 
34 35 59 
35 60 59 
35 36 60 
36 61 60 
36 37 61 
37 62 61 
37 38 62 
38 63 62 
38 39 63 
39 64 63 
39 40 64 
40 65 64 
40 41 65 
41 66 65 
41 42 66 
42 67 66 
42 43 67 
43 68 67 
43 44 68 
44 69 68 
44 45 69 
45 70 69 
45 46 70 
46 71 70 
46 47 71 
47 72 71 
47 48 72 
48 73 72 
48 49 73 
49 74 73 
50 51 75 
51 76 75 
51 52 76 
52 77 76 
52 53 77 
53 78 77 
53 54 78 
54 79 78 
54 55 79 
55 80 79 
55 56 80 
56 81 80 
56 57 81 
57 82 81 
57 58 82 
58 83 82 
58 59 83 
59 84 83 
59 60 84 
60 85 84 
60 61 85 
61 86 85 
61 62 86 
62 87 86 
62 63 87 
63 88 87 
63 64 88 
64 89 88 
64 65 89 
65 90 89 
65 66 90 
66 91 90 
66 67 91 
67 92 91 
67 68 92 
68 93 92 
68 69 93 
69 94 93 
69 70 94 
70 95 94 
70 71 95 
71 96 95 
71 72 96 
72 97 96 
72 73 97 
73 98 97 
73 74 98 
74 99 98 
75 76 100 
76 101 100 
76 77 101 
77 102 101 
77 78 102 
78 103 102 
78 79 103 
79 104 103 
79 80 104 
80 105 104 
80 81 105 
81 106 105 
81 82 106 
82 107 106 
82 83 107 
83 108 107 
83 84 108 
84 109 108 
84 85 109 
85 110 109 
85 86 110 
86 111 110 
86 87 111 
87 112 111 
87 88 112 
88 113 112 
88 89 113 
89 114 113 
89 90 114 
90 115 114 
90 91 115 
91 116 115 
91 92 116 
92 117 116 
92 93 117 
93 118 117 
93 94 118 
94 119 118 
94 95 119 
95 120 119 
95 96 120 
96 121 120 
96 97 121 
97 122 121 
97 98 122 
98 123 122 
98 99 123 
99 124 123 
100 101 125 
101 126 125 
101 102 126 
102 127 126 
102 103 127 
103 128 127 
103 104 128 
104 129 128 
104 105 129 
105 130 129 
105 106 130 
106 131 130 
106 107 131 
107 132 131 
107 108 132 
108 133 132 
108 109 133 
109 134 133 
[...]
<CellData Vectors="Vectors">
<DataArray type="Float64" Name="Velocity" NumberOfComponents = "3" Format="ascii">
-1.186718e-07 0 0 
-1.181418e-07 5.299592e-10 0 
-1.197317e-07 5.299592e-10 0 
-1.192000e-07 1.061642e-09 0 
-1.218550e-07 1.061642e-09 0 
-1.213201e-07 1.596540e-09 0 
-1.250481e-07 1.596540e-09 0 
-1.245090e-07 2.135667e-09 0 
-1.293194e-07 2.135667e-09 0 
-1.287758e-07 2.679284e-09 0 
-1.346780e-07 2.679284e-09 0 
-1.341307e-07 3.226582e-09 0 
-1.411312e-07 3.226582e-09 0 
-1.405824e-07 3.775314e-09 0 
-1.486818e-07 3.775314e-09 0 
-1.481357e-07 4.321370e-09 0 
-1.573245e-07 4.321370e-09 0 
-1.567876e-07 4.858299e-09 0 
-1.670411e-07 4.858299e-09 0 
-1.665226e-07 5.376795e-09 0 
-1.777947e-07 5.376795e-09 0 
-1.773073e-07 5.864187e-09 0 
-1.895231e-07 5.864187e-09 0 
-1.890833e-07 6.304002e-09 0 
-2.021311e-07 6.304002e-09 0 
-2.017594e-07 6.675706e-09 0 
-2.154825e-07 6.675706e-09 0 
-2.152034e-07 6.954786e-09 0 
-2.293921e-07 6.954786e-09 0 
-2.292335e-07 7.113349e-09 0 
-2.436188e-07 7.113349e-09 0 
-2.436106e-07 7.121476e-09 0 
-2.578617e-07 7.121476e-09 0 
-2.580337e-07 6.949495e-09 0 
-2.717607e-07 6.949495e-09 0 
-2.721389e-07 6.571294e-09 0 
-2.849033e-07 6.571294e-09 0 
-2.855061e-07 5.968520e-09 0 
-2.968403e-07 5.968520e-09 0 
-2.976736e-07 5.135239e-09 0 
-3.071108e-07 5.135239e-09 0 
-3.081638e-07 4.082208e-09 0 
-3.152752e-07 4.082208e-09 0 
-3.165178e-07 2.839611e-09 0 
-3.209545e-07 2.839611e-09 0 
-3.223370e-07 1.457045e-09 0 
-3.238685e-07 1.457045e-09 0 
-3.253256e-07 0 0 
-1.181418e-07 0 0 
-1.165537e-07 1.588154e-09 0 
-1.192000e-07 1.588154e-09 0 
-1.176065e-07 3.181711e-09 0 
-1.213201e-07 3.181711e-09 0 
-1.197164e-07 4.785391e-09 0 
-1.245090e-07 4.785391e-09 0 
-1.228918e-07 6.402512e-09 0 
-1.287758e-07 6.402512e-09 0 
-1.271441e-07 8.034172e-09 0 
-1.341307e-07 8.034172e-09 0 
-1.324866e-07 9.678312e-09 0 
-1.405824e-07 9.678312e-09 0 
-1.389321e-07 1.132862e-08 0 
-1.481357e-07 1.132862e-08 0 
-1.464911e-07 1.297324e-08 0 
-1.567876e-07 1.297324e-08 0 
-1.551675e-07 1.459333e-08 0 
-1.665226e-07 1.459333e-08 0 
-1.649545e-07 1.616149e-08 0 
-1.773073e-07 1.616149e-08 0 
-1.758287e-07 1.764014e-08 0 
-1.890833e-07 1.764014e-08 0 
-1.877433e-07 1.898012e-08 0 
-2.017594e-07 1.898012e-08 0 
-2.006198e-07 2.011974e-08 0 
-2.152034e-07 2.011974e-08 0 
-2.143383e-07 2.098487e-08 0 
-2.292335e-07 2.098487e-08 0 
-2.287279e-07 2.149049e-08 0 
-2.436106e-07 2.149049e-08 0 
-2.435566e-07 2.154453e-08 0 
-2.580337e-07 2.154453e-08 0 
-2.585235e-07 2.105471e-08 0 
-2.721389e-07 2.105471e-08 0 
-2.732552e-07 1.993845e-08 0 
-2.855061e-07 1.993845e-08 0 
-2.873085e-07 1.813607e-08 0 
-2.976736e-07 1.813607e-08 0 
-3.001842e-07 1.562547e-08 0 
-3.081638e-07 1.562547e-08 0 
-3.113531e-07 1.243619e-08 0 
-3.165178e-07 1.243619e-08 0 
-3.202952e-07 8.658800e-09 0 
-3.223370e-07 8.658800e-09 0 
-3.265502e-07 4.445614e-09 0 
-3.253256e-07 4.445614e-09 0 
-3.297712e-07 0 0 
-1.165537e-07 0 0 
-1.139127e-07 2.640947e-09 0 
-1.176065e-07 2.640947e-09 0 
-1.149558e-07 5.291655e-09 0 
-1.197164e-07 5.291655e-09 0 
-1.170473e-07 7.960802e-09 0 
-1.228918e-07 7.960802e-09 0 
-1.201978e-07 1.065482e-08 0 
-1.271441e-07 1.065482e-08 0 
-1.244224e-07 1.337658e-08 0 
-1.324866e-07 1.337658e-08 0 
-1.297393e-07 1.612388e-08 0 
-1.389321e-07 1.612388e-08 0 
-1.361684e-07 1.888761e-08 0 
-1.464911e-07 1.888761e-08 0 
-1.437291e-07 2.164963e-08 0 
-1.551675e-07 2.164963e-08 0 
-1.524368e-07 2.438029e-08 0 
-1.649545e-07 2.438029e-08 0 
-1.622991e-07 2.703569e-08 0 
-1.758287e-07 2.703569e-08 0 
-1.733096e-07 2.955477e-08 0 
-1.877433e-07 2.955477e-08 0 
-1.854415e-07 3.185658e-08 0 
-2.006198e-07 3.185658e-08 0 
-1.986381e-07 3.383827e-08 0 
-2.143383e-07 3.383827e-08 0 
-2.128021e-07 3.537448e-08 0 
-2.287279e-07 3.537448e-08 0 
-2.277832e-07 3.631918e-08 0 
-2.435566e-07 3.631918e-08 0 
-2.433643e-07 3.651147e-08 0 
-2.585235e-07 3.651147e-08 0 
-2.592487e-07 3.578634e-08 0 
-2.732552e-07 3.578634e-08 0 
-2.750498e-07 3.399175e-08 0 
-2.873085e-07 3.399175e-08 0 
-2.902884e-07 3.101182e-08 0 
-3.001842e-07 3.101182e-08 0 
-3.044017e-07 2.679436e-08 0 
-3.113531e-07 2.679436e-08 0 
-3.167692e-07 2.137829e-08 0 
-3.202952e-07 2.137829e-08 0 
-3.267597e-07 1.491379e-08 0 
-3.265502e-07 1.491379e-08 0 
-3.337974e-07 7.666611e-09 0 
-3.297712e-07 7.666611e-09 0 
-3.374378e-07 0 0 
-1.139127e-07 0 0 
-1.102288e-07 3.683978e-09 0 
-1.149558e-07 3.683978e-09 0 
-1.112566e-07 7.383162e-09 0 
-1.170473e-07 7.383162e-09 0 
-1.133191e-07 1.111134e-08 0 
-1.201978e-07 1.111134e-08 0 
-1.164298e-07 1.487938e-08 0 
-1.244224e-07 1.487938e-08 0 
-1.206083e-07 1.869345e-08 0 
-1.297393e-07 1.869345e-08 0 
-1.258797e-07 2.255301e-08 0 
-1.361684e-07 2.255301e-08 0 
-1.322731e-07 2.644830e-08 0 
-1.437291e-07 2.644830e-08 0 
-1.398200e-07 3.035737e-08 0 
-1.524368e-07 3.035737e-08 0 
-1.485517e-07 3.424252e-08 0 
-1.622991e-07 3.424252e-08 0 
-1.584954e-07 3.804622e-08 0 
-1.733096e-07 3.804622e-08 0 
-1.696692e-07 4.168666e-08 0 
-1.854415e-07 4.168666e-08 0 
-1.820750e-07 4.505316e-08 0 
-1.986381e-07 4.505316e-08 0 
-1.956889e-07 4.800230e-08 0 
-2.128021e-07 4.800230e-08 0 
-2.104488e-07 5.035558e-08 0 
-2.277832e-07 5.035558e-08 0 
-2.262385e-07 5.190031e-08 0 
-2.433643e-07 5.190031e-08 0 
-2.428688e-07 5.239582e-08 0 
-2.592487e-07 5.239582e-08 0 
-2.600571e-07 5.158743e-08 0 
-2.750498e-07 5.158743e-08 0 
-2.774068e-07 4.923039e-08 0 
-2.902884e-07 4.923039e-08 0 
-2.943937e-07 4.512511e-08 0 
-3.044017e-07 4.512511e-08 0 
-3.103649e-07 3.916187e-08 0 
-3.167692e-07 3.916187e-08 0 
-3.245622e-07 3.136883e-08 0 
-3.267597e-07 3.136883e-08 0 
-3.361771e-07 2.195144e-08 0 
-3.337974e-07 2.195144e-08 0 
-3.444418e-07 1.130704e-08 0 
-3.374378e-07 1.130704e-08 0 
-3.487449e-07 0 0 
-1.102288e-07 0 0 
-1.055170e-07 4.711802e-09 0 
-1.112566e-07 4.711802e-09 0 
-1.065227e-07 9.445670e-09 0 
-1.133191e-07 9.445670e-09 0 
-1.085427e-07 1.422203e-08 0 
-1.164298e-07 1.422203e-08 0 
-1.115939e-07 1.905790e-08 0 
-1.206083e-07 1.905790e-08 0 
-1.157014e-07 2.396483e-08 0 
-1.258797e-07 2.396483e-08 0 
-1.208981e-07 2.894641e-08 0 
-1.322731e-07 2.894641e-08 0 
-1.272243e-07 3.399522e-08 0 
-1.398200e-07 3.399522e-08 0 
-1.347262e-07 3.908904e-08 0 
-1.485517e-07 3.908904e-08 0 
-1.434545e-07 4.418619e-08 0 
-1.584954e-07 4.418619e-08 0 
-1.534615e-07 4.922003e-08 0 
-1.696692e-07 4.922003e-08 0 
-1.647967e-07 5.409248e-08 0 
-1.820750e-07 5.409248e-08 0 
-1.775004e-07 5.866710e-08 0 
-1.956889e-07 5.866710e-08 0 
-1.915938e-07 6.276219e-08 0 
-2.104488e-07 6.276219e-08 0 
-2.070658e-07 6.614522e-08 0 
-2.262385e-07 6.614522e-08 0 
-2.238530e-07 6.853064e-08 0 
-2.428688e-07 6.853064e-08 0 
-2.418153e-07 6.958409e-08 0 
-2.600571e-07 6.958409e-08 0 
-2.607040e-07 6.893717e-08 0 
-2.774068e-07 6.893717e-08 0 
-2.801267e-07 6.621727e-08 0 
-2.943937e-07 6.621727e-08 0 
-2.995146e-07 6.109636e-08 0 
-3.103649e-07 6.109636e-08 0 
-3.181021e-07 5.335919e-08 0 
-3.245622e-07 5.335919e-08 0 
-3.349377e-07 4.298373e-08 0 
-3.361771e-07 4.298373e-08 0 
-3.489448e-07 3.021608e-08 0 
-3.444418e-07 3.021608e-08 0 
-3.590477e-07 1.561013e-08 0 
-3.487449e-07 1.561013e-08 0 
-3.643550e-07 0 0 
-1.055170e-07 0 0 
-9.979941e-08 5.717561e-09 0 
-1.065227e-07 5.717561e-09 0 
-1.007746e-07 1.146568e-08 0 
-1.085427e-07 1.146568e-08 0 
-1.027352e-07 1.727321e-08 0 
-1.115939e-07 1.727321e-08 0 
-1.057018e-07 2.316537e-08 0 
-1.157014e-07 2.316537e-08 0 
-1.097052e-07 2.916157e-08 0 
-1.208981e-07 2.916157e-08 0 
-1.147871e-07 3.527259e-08 0 
-1.272243e-07 3.527259e-08 0 
-1.209997e-07 4.149714e-08 0 
-1.347262e-07 4.149714e-08 0 
-1.284060e-07 4.781737e-08 0 
-1.434545e-07 4.781737e-08 0 
-1.370787e-07 5.419319e-08 0 
-1.534615e-07 5.419319e-08 0 
-1.470995e-07 6.055522e-08 0 
-1.647967e-07 6.055522e-08 0 
-1.585558e-07 6.679612e-08 0 
-1.775004e-07 6.679612e-08 0 
-1.715359e-07 7.276057e-08 0 
-1.915938e-07 7.276057e-08 0 
-1.861203e-07 7.823414e-08 0 
-2.070658e-07 7.823414e-08 0 
-2.023674e-07 8.293248e-08 0 
-2.238530e-07 8.293248e-08 0 
-2.202926e-07 8.649293e-08 0 
-2.418153e-07 8.649293e-08 0 
-2.398355e-07 8.847272e-08 0 
-2.607040e-07 8.847272e-08 0 
-2.608168e-07 8.835990e-08 0 
-2.801267e-07 8.835990e-08 0 
-2.828814e-07 8.560515e-08 0 
-2.995146e-07 8.560515e-08 0 
-3.054358e-07 7.968389e-08 0 
-3.181021e-07 7.968389e-08 0 
-3.275912e-07 7.019477e-08 0 
-3.349377e-07 7.019477e-08 0 
-3.481416e-07 5.699082e-08 0 
-3.489448e-07 5.699082e-08 0 
-3.656166e-07 4.031903e-08 0 
-3.590477e-07 4.031903e-08 0 
-3.784494e-07 2.091739e-08 0 
-3.643550e-07 2.091739e-08 0 
-3.852724e-07 0 0 
-9.979941e-08 0 0 
-9.310665e-08 6.692757e-09 0 
-1.007746e-07 6.692757e-09 0 
-9.404106e-08 1.342629e-08 0 
-1.027352e-07 1.342629e-08 0 
-9.592175e-08 2.023975e-08 0 
-1.057018e-07 2.023975e-08 0 
-9.877270e-08 2.716881e-08 0 
-1.097052e-07 2.716881e-08 0 
-1.026305e-07 3.424347e-08 0 
-1.147871e-07 3.424347e-08 0 
-1.075453e-07 4.148523e-08 0 
-1.209997e-07 4.148523e-08 0 
-1.135816e-07 4.890338e-08 0 
-1.284060e-07 4.890338e-08 0 
-1.208192e-07 5.649010e-08 0 
-1.370787e-07 5.649010e-08 0 
-1.293548e-07 6.421398e-08 0 
-1.470995e-07 6.421398e-08 0 
-1.393020e-07 7.201152e-08 0 
-1.585558e-07 7.201152e-08 0 
-1.507911e-07 7.977622e-08 0 
-1.715359e-07 7.977622e-08 0 
-1.639672e-07 8.734491e-08 0 
-1.861203e-07 8.734491e-08 0 
-1.789838e-07 9.448134e-08 0 
-2.023674e-07 9.448134e-08 0 
-1.959911e-07 1.008576e-07 0 
-2.202926e-07 1.008576e-07 0 
-2.151144e-07 1.060359e-07 0 
-2.398355e-07 1.060359e-07 0 
-2.364174e-07 1.094540e-07 0 
-2.608168e-07 1.094540e-07 0 
-2.598462e-07 1.104246e-07 0 
-2.828814e-07 1.104246e-07 0 
-2.851465e-07 1.081595e-07 0 
-3.054358e-07 1.081595e-07 0 
-3.117561e-07 1.018393e-07 0 
-3.275912e-07 1.018393e-07 0 
-3.386853e-07 9.074520e-08 0 
-3.481416e-07 9.074520e-08 0 
-3.644211e-07 7.446574e-08 0 
-3.656166e-07 7.446574e-08 0 
-3.869305e-07 5.315183e-08 0 
-3.784494e-07 5.315183e-08 0 
-4.038608e-07 2.774039e-08 0 
-3.852724e-07 2.774039e-08 0 
-4.130128e-07 0 0 
-9.310665e-08 0 0 
-8.547948e-08 7.627172e-09 0 
-9.404106e-08 7.627172e-09 0 
-8.636125e-08 1.530698e-08 0 
-9.592175e-08 1.530698e-08 0 
-8.813804e-08 2.309070e-08 0 
-9.877270e-08 2.309070e-08 0 
-9.083674e-08 3.102665e-08 0 
-1.026305e-07 3.102665e-08 0 
-9.449891e-08 3.915827e-08 0 
-1.075453e-07 3.915827e-08 0 
-9.918214e-08 4.752147e-08 0 
-1.135816e-07 4.752147e-08 0 
-1.049620e-07 5.614104e-08 0 
-1.208192e-07 5.614104e-08 0 
-1.119346e-07 6.502568e-08 0 
-1.293548e-07 6.502568e-08 0 
-1.202194e-07 7.416112e-08 0 
-1.393020e-07 7.416112e-08 0 
-1.299624e-07 8.350068e-08 0 
-1.507911e-07 8.350068e-08 0 
-1.413395e-07 9.295233e-08 0 
-1.639672e-07 9.295233e-08 0 
-1.545580e-07 1.023615e-07 0 
-1.789838e-07 1.023615e-07 0 
-1.698567e-07 1.114886e-07 0 
-1.959911e-07 1.114886e-07 0 
-1.874989e-07 1.199809e-07 0 
-2.151144e-07 1.199809e-07 0 
-2.077563e-07 1.273389e-07 0 
-2.364174e-07 1.273389e-07 0 
-2.308736e-07 1.328828e-07 0 
-2.598462e-07 1.328828e-07 0 
-2.570042e-07 1.357248e-07 0 
-2.851465e-07 1.357248e-07 0 
-2.861021e-07 1.347692e-07 0 
-3.117561e-07 1.347692e-07 0 
-3.177569e-07 1.287684e-07 0 
-3.386853e-07 1.287684e-07 0 
-3.509727e-07 1.164810e-07 0 
-3.644211e-07 1.164810e-07 0 
-3.839270e-07 9.697512e-08 0 
-3.869305e-07 9.697512e-08 0 
-4.138234e-07 7.008217e-08 0 
-4.038608e-07 7.008217e-08 0 
-4.370506e-07 3.689234e-08 0 
-4.130128e-07 3.689234e-08 0 
-4.499051e-07 0 0 
-8.547948e-08 0 0 
-7.697053e-08 8.508948e-09 0 
-8.636125e-08 8.508948e-09 0 
-7.778644e-08 1.708376e-08 0 
-8.813804e-08 1.708376e-08 0 
-7.943240e-08 2.578940e-08 0 
-9.083674e-08 2.578940e-08 0 
-8.193732e-08 3.468882e-08 0 
-9.449891e-08 3.468882e-08 0 
-8.534624e-08 4.384150e-08 0 
-9.918214e-08 4.384150e-08 0 
-8.972230e-08 5.330135e-08 0 
-1.049620e-07 5.330135e-08 0 
-9.514974e-08 6.311363e-08 0 
-1.119346e-07 6.311363e-08 0 
-1.017378e-07 7.331044e-08 0 
-1.202194e-07 7.331044e-08 0 
-1.096257e-07 8.390415e-08 0 
-1.299624e-07 8.390415e-08 0 
-1.189888e-07 9.487773e-08 0 
-1.413395e-07 9.487773e-08 0 
-1.300463e-07 1.061709e-07 0 
-1.545580e-07 1.061709e-07 0 
-1.430687e-07 1.176602e-07 0 
-1.698567e-07 1.176602e-07 0 
-1.583860e-07 1.291309e-07 0 
-1.874989e-07 1.291309e-07 0 
-1.763916e-07 1.402382e-07 0 
-2.077563e-07 1.402382e-07 0 
-1.975383e-07 1.504562e-07 0 
-2.308736e-07 1.504562e-07 0 
-2.223164e-07 1.590134e-07 0 
-2.570042e-07 1.590134e-07 0 
-2.511949e-07 1.648227e-07 0 
-2.861021e-07 1.648227e-07 0 
-2.845007e-07 1.664240e-07 0 
-3.177569e-07 1.664240e-07 0 
-3.221967e-07 1.619842e-07 0 
-3.509727e-07 1.619842e-07 0 
-3.635215e-07 1.494354e-07 0 
-3.839270e-07 1.494354e-07 0 
-4.064909e-07 1.268715e-07 0 
-4.138234e-07 1.268715e-07 0 
-4.473856e-07 9.330937e-08 0 
-4.370506e-07 9.330937e-08 0 
-4.806132e-07 4.974681e-08 0 
-4.499051e-07 4.974681e-08 0 
-4.996519e-07 0 0 
-7.697053e-08 0 0 
-6.764567e-08 9.324856e-09 0 
-7.778644e-08 9.324856e-09 0 
-6.838157e-08 1.872972e-08 0 
-7.943240e-08 1.872972e-08 0 
-6.986779e-08 2.829433e-08 0 
-8.193732e-08 2.829433e-08 0 
-7.213392e-08 3.809773e-08 0 
-8.534624e-08 3.809773e-08 0 
-7.522641e-08 4.821756e-08 0 
-8.972230e-08 4.821756e-08 0 
-7.921106e-08 5.872880e-08 0 
-9.514974e-08 5.872880e-08 0 
-8.417686e-08 6.970168e-08 0 
-1.017378e-07 6.970168e-08 0 
-9.024116e-08 8.119832e-08 0 
-1.096257e-07 8.119832e-08 0 
-9.755669e-08 9.326730e-08 0 
-1.189888e-07 9.326730e-08 0 
-1.063209e-07 1.059352e-07 0 
-1.300463e-07 1.059352e-07 0 
-1.167881e-07 1.191933e-07 0 
-1.430687e-07 1.191933e-07 0 
-1.292846e-07 1.329775e-07 0 
-1.583860e-07 1.329775e-07 0 
-1.442271e-07 1.471364e-07 0 
-1.763916e-07 1.471364e-07 0 
-1.621429e-07 1.613850e-07 0 
-1.975383e-07 1.613850e-07 0 
-1.836891e-07 1.752343e-07 0 
-2.223164e-07 1.752343e-07 0 
-2.096589e-07 1.878919e-07 0 
-2.511949e-07 1.878919e-07 0 
-2.409583e-07 1.981285e-07 0 
-2.845007e-07 1.981285e-07 0 
-2.785092e-07 2.041200e-07 0 
-3.221967e-07 2.041200e-07 0 
-3.230077e-07 2.033090e-07 0 
-3.635215e-07 2.033090e-07 0 
-3.744258e-07 1.924047e-07 0 
-4.064909e-07 1.924047e-07 0 
-4.311293e-07 1.677663e-07 0 
-4.473856e-07 1.677663e-07 0 
-4.886149e-07 1.265370e-07 0 
-4.806132e-07 1.265370e-07 0 
-5.383646e-07 6.878554e-08 0 
-4.996519e-07 6.878554e-08 0 
-5.684375e-07 0 0 
-6.764567e-08 0 0 
-5.758492e-08 1.006076e-08 0 
-6.838157e-08 1.006076e-08 0 
-5.822639e-08 2.021594e-08 0 
-6.986779e-08 2.021594e-08 0 
-5.952325e-08 3.056047e-08 0 
-7.213392e-08 3.056047e-08 0 
-6.150418e-08 4.119022e-08 0 
-7.522641e-08 4.119022e-08 0 
-6.421441e-08 5.220221e-08 0 
-7.921106e-08 5.220221e-08 0 
-6.771868e-08 6.369460e-08 0 
-8.417686e-08 6.369460e-08 0 
-7.210549e-08 7.576597e-08 0 
-9.024116e-08 7.576597e-08 0 
-7.749327e-08 8.851386e-08 0 
-9.755669e-08 8.851386e-08 0 
-8.403900e-08 1.020315e-07 0 
-1.063209e-07 1.020315e-07 0 
-9.195007e-08 1.164024e-07 0 
-1.167881e-07 1.164024e-07 0 
-1.015007e-07 1.316898e-07 0 
-1.292846e-07 1.316898e-07 0 
-1.130545e-07 1.479199e-07 0 
-1.442271e-07 1.479199e-07 0 
-1.270947e-07 1.650523e-07 0 
-1.621429e-07 1.650523e-07 0 
-1.442641e-07 1.829311e-07 0 
-1.836891e-07 1.829311e-07 0 
-1.654161e-07 2.012041e-07 0 
-2.096589e-07 2.012041e-07 0 
-1.916717e-07 2.191913e-07 0 
-2.409583e-07 2.191913e-07 0 
-2.244703e-07 2.356793e-07 0 
-2.785092e-07 2.356793e-07 0 
-2.655699e-07 2.486186e-07 0 
-3.230077e-07 2.486186e-07 0 
-3.168992e-07 2.547270e-07 0 
-3.744258e-07 2.547270e-07 0 
-3.800445e-07 2.491083e-07 0 
-4.311293e-07 2.491083e-07 0 
-4.549857e-07 2.252519e-07 0 
-4.886149e-07 2.252519e-07 0 
-5.375801e-07 1.762867e-07 0 
-5.383646e-07 1.762867e-07 0 
-6.157929e-07 9.885837e-08 0 
-5.684375e-07 9.885837e-08 0 
-6.672958e-07 0 0 
-5.758492e-08 0 0 
-4.688269e-08 1.070223e-08 0 
-5.822639e-08 1.070223e-08 0 
-4.741583e-08 2.151279e-08 0 
-5.952325e-08 2.151279e-08 0 
-4.849465e-08 3.254140e-08 0 
-6.150418e-08 3.254140e-08 0 
-5.014512e-08 4.390045e-08 0 
-6.421441e-08 4.390045e-08 0 
-5.240838e-08 5.570648e-08 0 
-6.771868e-08 5.570648e-08 0 
-5.534376e-08 6.808140e-08 0 
-7.210549e-08 6.808140e-08 0 
-5.903313e-08 8.115376e-08 0 
-7.749327e-08 8.115376e-08 0 
-6.358745e-08 9.505959e-08 0 
-8.403900e-08 9.505959e-08 0 
-6.915597e-08 1.099426e-07 0 
-9.195007e-08 1.099426e-07 0 
-7.593963e-08 1.259531e-07 0 
-1.015007e-07 1.259531e-07 0 
-8.421019e-08 1.432436e-07 0 
-1.130545e-07 1.432436e-07 0 
-9.433810e-08 1.619600e-07 0 
-1.270947e-07 1.619600e-07 0 
-1.068330e-07 1.822217e-07 0 
-1.442641e-07 1.822217e-07 0 
-1.224027e-07 2.040831e-07 0 
-1.654161e-07 2.040831e-07 0 
-1.420394e-07 2.274598e-07 0 
-1.916717e-07 2.274598e-07 0 
-1.671417e-07 2.519898e-07 0 
-2.244703e-07 2.519898e-07 0 
-1.996811e-07 2.767790e-07 0 
-2.655699e-07 2.767790e-07 0 
-2.424010e-07 2.999479e-07 0 
-3.168992e-07 2.999479e-07 0 
-2.989748e-07 3.178723e-07 0 
-3.800445e-07 3.178723e-07 0 
-3.738673e-07 3.240495e-07 0 
-4.549857e-07 3.240495e-07 0 
-4.711890e-07 3.078463e-07 0 
-5.375801e-07 3.078463e-07 0 
-5.909269e-07 2.544995e-07 0 
-6.157929e-07 2.544995e-07 0 
-7.199311e-07 1.503613e-07 0 
-6.672958e-07 1.503613e-07 0 
-8.176571e-07 0 0 
-4.688269e-08 0 0 
-3.564732e-08 1.123537e-08 0 
-4.741583e-08 1.123537e-08 0 
-3.605957e-08 2.259162e-08 0 
-4.849465e-08 2.259162e-08 0 
-3.689441e-08 3.419186e-08 0 
-5.014512e-08 3.419186e-08 0 
-3.817326e-08 4.616372e-08 0 
-5.240838e-08 4.616372e-08 0 
-3.993025e-08 5.864185e-08 0 
-5.534376e-08 5.864185e-08 0 
-4.221483e-08 7.177078e-08 0 
-5.903313e-08 7.177078e-08 0 
-4.509583e-08 8.570808e-08 0 
-6.358745e-08 8.570808e-08 0 
-4.866741e-08 1.006281e-07 0 
-6.915597e-08 1.006281e-07 0 
-5.305781e-08 1.167263e-07 0 
-7.593963e-08 1.167263e-07 0 
-5.844227e-08 1.342236e-07 0 
-8.421019e-08 1.342236e-07 0 
-6.506229e-08 1.533715e-07 0 
-9.433810e-08 1.533715e-07 0 
-7.325470e-08 1.744549e-07 0 
-1.068330e-07 1.744549e-07 0 
-8.349641e-08 1.977915e-07 0 
-1.224027e-07 1.977915e-07 0 
-9.647438e-08 2.237198e-07 0 
-1.420394e-07 2.237198e-07 0 
-1.131971e-07 2.525621e-07 0 
-1.671417e-07 2.525621e-07 0 
-1.351746e-07 2.845292e-07 0 
-1.996811e-07 2.845292e-07 0 
-1.647115e-07 3.194988e-07 0 
-2.424010e-07 3.194988e-07 0 
-2.053780e-07 3.565217e-07 0 
-2.989748e-07 3.565217e-07 0 
-2.627317e-07 3.927648e-07 0 
-3.738673e-07 3.927648e-07 0 
-3.452610e-07 4.213712e-07 0 
-4.711890e-07 4.213712e-07 0 
-4.649760e-07 4.275841e-07 0 
-5.909269e-07 4.275841e-07 0 
-6.350073e-07 3.835037e-07 0 
-7.199311e-07 3.835037e-07 0 
-8.553475e-07 2.480873e-07 0 
-8.176571e-07 2.480873e-07 0 
-1.065744e-06 0 0 
-3.564732e-08 0 0 
-2.399971e-08 1.164762e-08 0 
-3.605957e-08 1.164762e-08 0 
-2.428073e-08 2.342645e-08 0 
-3.689441e-08 2.342645e-08 0 
-2.485015e-08 3.547071e-08 0 
-3.817326e-08 3.547071e-08 0 
-2.572327e-08 4.792071e-08 0 
-3.993025e-08 4.792071e-08 0 
-2.692452e-08 6.092644e-08 0 
-4.221483e-08 6.092644e-08 0 
-2.848949e-08 7.465178e-08 0 
-4.509583e-08 7.465178e-08 0 
-3.046796e-08 8.927965e-08 0 
-4.866741e-08 8.927965e-08 0 
-3.292856e-08 1.050185e-07 0 
-5.305781e-08 1.050185e-07 0 
-3.596559e-08 1.221107e-07 0 
-5.844227e-08 1.221107e-07 0 
-3.970936e-08 1.408436e-07 0 
-6.506229e-08 1.408436e-07 0 
-4.434200e-08 1.615639e-07 0 
-7.325470e-08 1.615639e-07 0 
-5.012201e-08 1.846966e-07 0 
-8.349641e-08 1.846966e-07 0 
-5.742360e-08 2.107694e-07 0 
-9.647438e-08 2.107694e-07 0 
-6.680131e-08 2.404425e-07 0 
-1.131971e-07 2.404425e-07 0 
-7.909995e-08 2.745396e-07 0 
-1.351746e-07 2.745396e-07 0 
-9.564816e-08 3.140661e-07 0 
-1.647115e-07 3.140661e-07 0 
-1.186123e-07 3.601653e-07 0 
-2.053780e-07 3.601653e-07 0 
-1.516679e-07 4.138754e-07 0 
-2.627317e-07 4.138754e-07 0 
-2.013131e-07 4.752941e-07 0 
-3.452610e-07 4.752941e-07 0 
-2.794687e-07 5.410863e-07 0 
-4.649760e-07 5.410863e-07 0 
-4.084469e-07 5.976154e-07 0 
-6.350073e-07 5.976154e-07 0 
-6.287789e-07 6.038439e-07 0 
-8.553475e-07 6.038439e-07 0 
-1.000707e-06 4.584842e-07 0 
-1.065744e-06 4.584842e-07 0 
-1.524229e-06 0 0 
-2.399971e-08 0 0 