<?xml version="1.0"?>
<VTKFile type="UnstructuredGrid" version="0.1" byte_order="LittleEndian">
<UnstructuredGrid>
<Piece NumberOfPoints="12" NumberOfCells="12"> 
<Points> 
<DataArray type="Float32" NumberOfComponents="3" Format="ascii">
0 0 0 
4 0 0 
8 0 0 
12 0 0 
0 4 0 
4 4 0 
8 4 0 
12 4 0 
0 8 0 
4 8 0 
8 8 0 
12 8 0 
</DataArray>
</Points>
<Cells>
<DataArray type="Int32" Name="connectivity" Format="ascii">
0 1 4 
1 5 4 
1 2 5 
2 6 5 
2 3 6 
3 7 6 
4 5 8 
5 9 8 
5 6 9 
6 10 9 
6 7 10 
7 11 10 
</DataArray>
<DataArray type="Int32" Name="offsets" Format="ascii">
3 
6 
9 
12 
15 
18 
21 
24 
27 
30 
33 
36 
</DataArray>
<DataArray type="UInt8" Name="types" Format="ascii">
5 
5 
5 
5 
5 
5 
5 
5 
5 
5 
5 
5 
</DataArray>
</Cells>
<PointData Scalars="scalars">
<DataArray type="Float32" Name="hh" Format="ascii">
13 
1.248758e+01 
1.172671e+01 
1.050000e+01 
13 
1.261180e+01 
1.195963e+01 
1.050000e+01 
13 
13 
13 
1.050000e+01 
</DataArray>
<DataArray type="Float32" Name="u" Format="ascii">
130 
1.248758e+02 
1.172671e+02 
105 
90 
8.611801e+01 
7.959627e+01 
65 
50 
50 
50 
25 
</DataArray>
<DataArray type="Float32" Name="v" Format="ascii">
1.281056e-07 
1.018976e-07 
1.927359e-07 
1.731297e-07 
3.121562e-07 
3.649068e-07 
9.704969e-08 
9.704969e-08 
1.897415e-07 
2.600932e-07 
4.481132e-07 
6.250000e-07 
</DataArray>
</PointData>
</Piece>
</UnstructuredGrid>
</VTKFile>
